REMARK SMILES CCc1nc2c(C)nc(C)cc2n1-c1ccc(CCNC(=O)NS(=O)(=O)c2ccc(C)cc2)cc1
REMARK SMILES IDX 18 1 17 2 16 3 34 4 15 5 35 6 14 7 13 8 12 9 3 10 5 11 11 12
REMARK SMILES IDX 4 13 6 14 9 15 8 16 7 17 10 18 2 19 1 20 19 21 20 22 21 23
REMARK SMILES IDX 23 24 22 25 24 28 25 29 26 30 27 31 33 32 28 33 32 34 29 35
REMARK SMILES IDX 30 36 31 37
REMARK H PARENT 20 26 23 27
ROOT
ATOM      1  C   UNL     1     130.650 136.263 136.142  1.00  0.00    +0.057 C 
ENDROOT
BRANCH   1   2
ATOM      2  C   UNL     1     129.967 136.049 134.791  1.00  0.00    -0.046 A 
ATOM      3  C   UNL     1     129.751 137.123 133.942  1.00  0.00    +0.006 A 
ATOM      4  C   UNL     1     129.575 134.778 134.411  1.00  0.00    +0.006 A 
ATOM      5  C   UNL     1     129.136 136.926 132.720  1.00  0.00    +0.027 A 
ATOM      6  C   UNL     1     128.960 134.582 133.188  1.00  0.00    +0.027 A 
ATOM      7  C   UNL     1     128.744 135.654 132.339  1.00  0.00    +0.047 A 
BRANCH   7   8
ATOM      8  N   UNL     1     128.089 135.450 131.058  1.00  0.00    -0.296 N 
ATOM      9  C   UNL     1     128.691 135.100 129.895  1.00  0.00    +0.077 A 
ATOM     10  C   UNL     1     126.778 135.564 130.842  1.00  0.00    +0.114 A 
ATOM     11  C   UNL     1     127.707 135.021 128.954  1.00  0.00    +0.110 A 
ATOM     12  C   UNL     1     130.029 134.839 129.482  1.00  0.00    +0.052 A 
ATOM     13  N   UNL     1     126.534 135.309 129.560  1.00  0.00    -0.231 NA
ATOM     14  C   UNL     1     128.037 134.675 127.621  1.00  0.00    +0.065 A 
ATOM     15  C   UNL     1     130.271 134.511 128.155  1.00  0.00    +0.040 A 
ATOM     16  N   UNL     1     129.286 134.436 127.271  1.00  0.00    -0.256 NA
ATOM     17  C   UNL     1     126.923 134.582 126.583  1.00  0.00    +0.069 C 
ATOM     18  C   UNL     1     131.696 134.226 127.694  1.00  0.00    +0.067 C 
BRANCH  10  19
ATOM     19  C   UNL     1     125.718 135.937 131.867  1.00  0.00    +0.072 C 
ATOM     20  C   UNL     1     125.089 137.296 131.573  1.00  0.00    +0.012 C 
ENDBRANCH  10  19
ENDBRANCH   7   8
ENDBRANCH   1   2
BRANCH   1  21
ATOM     21  C   UNL     1     129.696 136.289 137.335  1.00  0.00    +0.122 C 
BRANCH  21  22
ATOM     22  N   UNL     1     128.449 136.934 136.977  1.00  0.00    -0.337 N 
ATOM     23  C   UNL     1     128.337 138.378 137.022  1.00  0.00    +0.328 C 
ATOM     24  N   UNL     1     127.077 138.997 136.651  1.00  0.00    -0.231 N 
ATOM     25  O   UNL     1     129.260 139.037 137.358  1.00  0.00    -0.248 OA
ATOM     26  H   UNL     1     127.640 136.365 136.690  1.00  0.00    +0.165 HD
ATOM     27  H   UNL     1     126.289 138.400 136.361  1.00  0.00    +0.185 HD
BRANCH  24  28
ATOM     28  S   UNL     1     126.871 140.689 136.684  1.00  0.00    +0.265 S 
ATOM     29  O   UNL     1     125.479 141.049 136.949  1.00  0.00    -0.201 OA
ATOM     30  O   UNL     1     127.529 141.305 137.835  1.00  0.00    -0.201 OA
BRANCH  28  31
ATOM     31  C   UNL     1     127.435 141.430 135.131  1.00  0.00    +0.087 A 
ATOM     32  C   UNL     1     127.540 140.658 133.989  1.00  0.00    +0.022 A 
ATOM     33  C   UNL     1     127.761 142.772 135.102  1.00  0.00    +0.022 A 
ATOM     34  C   UNL     1     127.974 141.237 132.811  1.00  0.00    +0.005 A 
ATOM     35  C   UNL     1     128.192 143.351 133.924  1.00  0.00    +0.005 A 
ATOM     36  C   UNL     1     128.297 142.583 132.780  1.00  0.00    -0.051 A 
ATOM     37  C   UNL     1     128.775 143.228 131.484  1.00  0.00    +0.044 C 
ENDBRANCH  28  31
ENDBRANCH  24  28
ENDBRANCH  21  22
ENDBRANCH   1  21
TORSDOF 7
