REMARK SMILES CC(C)CCCCCCOC(=O)c1ccccc1C(=O)OCCCCCCC(C)C
REMARK SMILES IDX 13 1 14 2 15 3 16 4 17 5 18 6 11 7 12 8 10 9 9 10 8 11 7 12
REMARK SMILES IDX 6 13 5 14 4 15 2 16 1 17 3 18 19 19 20 20 21 21 22 22 23 23
REMARK SMILES IDX 24 24 25 25 26 26 27 27 28 28 29 29 30 30
REMARK H PARENT
ROOT
ATOM      1  C   UNL     1      -0.778  -3.861  -2.678  1.00  0.00    +0.074 A 
ATOM      2  C   UNL     1      -0.702  -5.128  -3.276  1.00  0.00    +0.016 A 
ATOM      3  C   UNL     1      -1.092  -5.301  -4.605  1.00  0.00    +0.001 A 
ATOM      4  C   UNL     1      -1.562  -4.215  -5.343  1.00  0.00    +0.001 A 
ATOM      5  C   UNL     1      -1.621  -2.948  -4.760  1.00  0.00    +0.016 A 
ATOM      6  C   UNL     1      -1.210  -2.764  -3.432  1.00  0.00    +0.074 A 
ENDROOT
BRANCH   1   7
ATOM      7  C   UNL     1      -0.430  -3.771  -1.247  1.00  0.00    +0.339 C 
ATOM      8  O   UNL     1       0.532  -4.327  -0.747  1.00  0.00    -0.246 OA
BRANCH   7   9
ATOM      9  O   UNL     1      -1.413  -3.102  -0.597  1.00  0.00    -0.462 OA
BRANCH   9  10
ATOM     10  C   UNL     1      -1.274  -3.091   0.829  1.00  0.00    +0.233 C 
BRANCH  10  11
ATOM     11  C   UNL     1      -2.390  -2.244   1.437  1.00  0.00    +0.042 C 
BRANCH  11  12
ATOM     12  C   UNL     1      -2.310  -0.781   0.990  1.00  0.00    +0.003 C 
BRANCH  12  13
ATOM     13  C   UNL     1      -3.385   0.073   1.662  1.00  0.00    +0.000 C 
BRANCH  13  14
ATOM     14  C   UNL     1      -3.448   1.507   1.121  1.00  0.00    +0.000 C 
BRANCH  14  15
ATOM     15  C   UNL     1      -2.176   2.318   1.390  1.00  0.00    +0.003 C 
BRANCH  15  16
ATOM     16  C   UNL     1      -2.240   3.757   0.845  1.00  0.00    -0.017 C 
ATOM     17  C   UNL     1      -0.868   4.423   0.975  1.00  0.00    +0.007 C 
ATOM     18  C   UNL     1      -3.293   4.607   1.559  1.00  0.00    +0.007 C 
ENDBRANCH  15  16
ENDBRANCH  14  15
ENDBRANCH  13  14
ENDBRANCH  12  13
ENDBRANCH  11  12
ENDBRANCH  10  11
ENDBRANCH   9  10
ENDBRANCH   7   9
ENDBRANCH   1   7
BRANCH   6  19
ATOM     19  C   UNL     1      -1.218  -1.387  -2.910  1.00  0.00    +0.339 C 
ATOM     20  O   UNL     1      -2.166  -0.628  -3.011  1.00  0.00    -0.246 OA
BRANCH  19  21
ATOM     21  O   UNL     1       0.019  -1.099  -2.440  1.00  0.00    -0.462 OA
BRANCH  21  22
ATOM     22  C   UNL     1       0.199   0.263  -2.031  1.00  0.00    +0.233 C 
BRANCH  22  23
ATOM     23  C   UNL     1       1.692   0.560  -1.910  1.00  0.00    +0.042 C 
BRANCH  23  24
ATOM     24  C   UNL     1       2.453  -0.356  -0.946  1.00  0.00    +0.003 C 
BRANCH  24  25
ATOM     25  C   UNL     1       1.956  -0.346   0.502  1.00  0.00    +0.000 C 
BRANCH  25  26
ATOM     26  C   UNL     1       1.936   1.024   1.186  1.00  0.00    +0.000 C 
BRANCH  26  27
ATOM     27  C   UNL     1       3.281   1.757   1.243  1.00  0.00    +0.003 C 
BRANCH  27  28
ATOM     28  C   UNL     1       4.427   0.996   1.936  1.00  0.00    -0.017 C 
ATOM     29  C   UNL     1       4.104   0.656   3.392  1.00  0.00    +0.007 C 
ATOM     30  C   UNL     1       5.711   1.828   1.873  1.00  0.00    +0.007 C 
ENDBRANCH  27  28
ENDBRANCH  26  27
ENDBRANCH  25  26
ENDBRANCH  24  25
ENDBRANCH  23  24
ENDBRANCH  22  23
ENDBRANCH  21  22
ENDBRANCH  19  21
ENDBRANCH   6  19
TORSDOF 18
