REMARK SMILES COc1cccc(N(C)C(=S)Oc2ccc3c(c2)CCCC3)n1
REMARK SMILES IDX 9 1 8 2 7 3 5 4 6 5 4 6 3 7 23 8 2 9 1 10 10 11 11 12 12 13
REMARK SMILES IDX 13 14 18 15 14 16 17 17 15 18 19 19 16 20 20 21 22 22 21 23
REMARK H PARENT
REMARK INDEX MAP 7 1 20 2 8 3 1 4 19 5 18 6 17 7 21 8 9 9 15 10 10 11 23 12
REMARK INDEX MAP 22 13 11 14 2 15 14 16 12 17 6 18 5 19 3 20 4 21 16 22 13 23
ROOT
ATOM      1  C   UNL     1       6.161 -13.725   0.561  1.00  0.00    +0.156 C 
ATOM      2  N   UNL     1       7.257 -13.999  -0.361  1.00  0.00    -0.290 N 
ENDROOT
BRANCH   2   3
ATOM      3  C   UNL     1       8.098 -12.946  -0.702  1.00  0.00    +0.139 A 
ATOM      4  C   UNL     1       8.820 -11.198  -2.143  1.00  0.00    +0.009 A 
ATOM      5  C   UNL     1       7.954 -12.257  -1.904  1.00  0.00    +0.048 A 
ATOM      6  C   UNL     1       9.780 -10.860  -1.209  1.00  0.00    +0.068 A 
ATOM      7  C   UNL     1       9.831 -11.618  -0.044  1.00  0.00    +0.214 A 
ATOM      8  N   UNL     1       9.018 -12.633   0.209  1.00  0.00    -0.196 NA
BRANCH   7   9
ATOM      9  O   UNL     1      10.735 -11.277   0.890  1.00  0.00    -0.481 OA
ATOM     10  C   UNL     1      11.561 -10.147   0.625  1.00  0.00    +0.280 C 
ENDBRANCH   7   9
ENDBRANCH   2   3
BRANCH   2  11
ATOM     11  C   UNL     1       7.398 -15.245  -0.807  1.00  0.00    +0.270 C 
ATOM     12  S   UNL     1       6.436 -16.532  -0.435  1.00  0.00    -0.018 S 
BRANCH  11  13
ATOM     13  O   UNL     1       8.472 -15.326  -1.649  1.00  0.00    -0.432 OA
BRANCH  13  14
ATOM     14  C   UNL     1       8.863 -16.571  -2.178  1.00  0.00    +0.130 A 
ATOM     15  C   UNL     1       8.634 -16.852  -3.516  1.00  0.00    +0.051 A 
ATOM     16  C   UNL     1       9.535 -17.481  -1.382  1.00  0.00    +0.047 A 
ATOM     17  C   UNL     1       9.077 -18.048  -4.079  1.00  0.00    -0.041 A 
ATOM     18  C   UNL     1       9.978 -18.670  -1.931  1.00  0.00    +0.008 A 
ATOM     19  C   UNL     1       8.827 -18.316  -5.543  1.00  0.00    +0.036 C 
ATOM     20  C   UNL     1       9.761 -18.971  -3.273  1.00  0.00    -0.045 A 
ATOM     21  C   UNL     1       9.450 -19.597  -6.080  1.00  0.00    +0.005 C 
ATOM     22  C   UNL     1      10.300 -20.248  -3.863  1.00  0.00    +0.036 C 
ATOM     23  C   UNL     1      10.676 -20.032  -5.305  1.00  0.00    +0.005 C 
ENDBRANCH  13  14
ENDBRANCH  11  13
ENDBRANCH   2  11
TORSDOF 5
