REMARK SMILES CC(C)CCCCCCOC(=O)c1ccccc1C(=O)OCCCCCCC(C)C
REMARK SMILES IDX 13 1 18 2 14 3 17 4 15 5 16 6 11 7 12 8 10 9 9 10 8 11 7 12
REMARK SMILES IDX 6 13 5 14 4 15 2 16 1 17 3 18 19 19 20 20 21 21 22 22 23 23
REMARK SMILES IDX 24 24 25 25 26 26 27 27 28 28 29 29 30 30
REMARK H PARENT
REMARK INDEX MAP 25 1 26 2 27 3 28 4 29 5 30 6 23 7 3 8 1 9 21 10 15 11 13 12
REMARK INDEX MAP 11 13 7 14 5 15 9 16 17 17 18 18 24 19 4 20 2 21 22 22 16 23
REMARK INDEX MAP 14 24 12 25 8 26 6 27 10 28 19 29 20 30
ROOT
ATOM      1  C   UNL     1      -0.301   1.411   5.577  1.00  0.00    +0.074 A 
ATOM      2  C   UNL     1      -1.352   0.459   5.514  1.00  0.00    +0.074 A 
ATOM      3  C   UNL     1      -0.385   2.456   6.517  1.00  0.00    +0.016 A 
ATOM      4  C   UNL     1      -2.478   0.611   6.338  1.00  0.00    +0.016 A 
ATOM      5  C   UNL     1      -1.500   2.578   7.348  1.00  0.00    +0.001 A 
ATOM      6  C   UNL     1      -2.550   1.665   7.250  1.00  0.00    +0.001 A 
ENDROOT
BRANCH   1   7
ATOM      7  C   UNL     1       0.832   1.393   4.621  1.00  0.00    +0.339 C 
ATOM      8  O   UNL     1       1.932   1.928   4.931  1.00  0.00    -0.246 OA
BRANCH   7   9
ATOM      9  O   UNL     1       0.657   0.830   3.353  1.00  0.00    -0.462 OA
BRANCH   9  10
ATOM     10  C   UNL     1       1.661   0.837   2.346  1.00  0.00    +0.233 C 
BRANCH  10  11
ATOM     11  C   UNL     1       1.106   0.148   1.099  1.00  0.00    +0.042 C 
BRANCH  11  12
ATOM     12  C   UNL     1       2.134   0.023  -0.033  1.00  0.00    +0.003 C 
BRANCH  12  13
ATOM     13  C   UNL     1       2.454   1.378  -0.688  1.00  0.00    +0.000 C 
BRANCH  13  14
ATOM     14  C   UNL     1       3.345   1.231  -1.932  1.00  0.00    +0.000 C 
BRANCH  14  15
ATOM     15  C   UNL     1       2.542   0.796  -3.174  1.00  0.00    +0.003 C 
BRANCH  15  16
ATOM     16  C   UNL     1       3.380   0.649  -4.465  1.00  0.00    -0.017 C 
ATOM     17  C   UNL     1       4.015   1.974  -4.909  1.00  0.00    +0.007 C 
ATOM     18  C   UNL     1       4.438  -0.457  -4.354  1.00  0.00    +0.007 C 
ENDBRANCH  15  16
ENDBRANCH  14  15
ENDBRANCH  13  14
ENDBRANCH  12  13
ENDBRANCH  11  12
ENDBRANCH  10  11
ENDBRANCH   9  10
ENDBRANCH   7   9
ENDBRANCH   1   7
BRANCH   2  19
ATOM     19  C   UNL     1      -1.277  -0.732   4.652  1.00  0.00    +0.339 C 
ATOM     20  O   UNL     1      -0.296  -1.518   4.756  1.00  0.00    -0.246 OA
BRANCH  19  21
ATOM     21  O   UNL     1      -2.285  -0.969   3.713  1.00  0.00    -0.462 OA
BRANCH  21  22
ATOM     22  C   UNL     1      -2.310  -2.123   2.876  1.00  0.00    +0.233 C 
BRANCH  22  23
ATOM     23  C   UNL     1      -3.154  -1.844   1.632  1.00  0.00    +0.042 C 
BRANCH  23  24
ATOM     24  C   UNL     1      -2.465  -0.822   0.716  1.00  0.00    +0.003 C 
BRANCH  24  25
ATOM     25  C   UNL     1      -3.304  -0.539  -0.537  1.00  0.00    +0.000 C 
BRANCH  25  26
ATOM     26  C   UNL     1      -2.642   0.505  -1.455  1.00  0.00    +0.000 C 
BRANCH  26  27
ATOM     27  C   UNL     1      -1.483  -0.065  -2.306  1.00  0.00    +0.003 C 
BRANCH  27  28
ATOM     28  C   UNL     1      -1.885  -0.369  -3.769  1.00  0.00    -0.017 C 
ATOM     29  C   UNL     1      -0.641  -0.708  -4.601  1.00  0.00    +0.007 C 
ATOM     30  C   UNL     1      -2.902  -1.516  -3.861  1.00  0.00    +0.007 C 
ENDBRANCH  27  28
ENDBRANCH  26  27
ENDBRANCH  25  26
ENDBRANCH  24  25
ENDBRANCH  23  24
ENDBRANCH  22  23
ENDBRANCH  21  22
ENDBRANCH  19  21
ENDBRANCH   2  19
TORSDOF 18
