REMARK SMILES CN(CCOc1ccc(C[C@@H]2SC(=O)NC2=O)cc1)c1ccccn1
REMARK SMILES IDX 5 1 6 2 9 3 8 4 18 5 7 6 19 7 10 8 11 9 12 10 13 11 14 12
REMARK SMILES IDX 15 13 16 14 17 15 4 17 3 18 2 19 1 20 20 21 25 22 21 23
REMARK SMILES IDX 24 24 22 25 23 26
REMARK H PARENT 15 16
REMARK INDEX MAP 4 1 15 2 12 3 13 4 17 5 14 6 16 7 11 8 10 9 1 10 8 11 2 12
REMARK INDEX MAP 5 13 9 14 3 15 26 16 18 17 19 18 6 19 20 20 21 21 7 22 25 23
REMARK INDEX MAP 22 24 24 25 23 26
ROOT
ATOM      1  O   UNL     1      56.740  26.147   6.301  1.00  0.00    -0.492 OA
ENDROOT
BRANCH   1   2
ATOM      2  C   UNL     1      56.611  27.537   6.337  1.00  0.00    +0.119 A 
ATOM      3  C   UNL     1      56.413  30.324   6.463  1.00  0.00    -0.046 A 
ATOM      4  C   UNL     1      55.408  29.564   5.811  1.00  0.00    +0.007 A 
ATOM      5  C   UNL     1      57.491  29.689   7.041  1.00  0.00    +0.007 A 
ATOM      6  C   UNL     1      55.516  28.174   5.752  1.00  0.00    +0.047 A 
ATOM      7  C   UNL     1      57.600  28.291   6.984  1.00  0.00    +0.047 A 
BRANCH   3   8
ATOM      8  C   UNL     1      56.312  31.863   6.534  1.00  0.00    +0.060 C 
BRANCH   8   9
ATOM      9  C   UNL     1      56.550  32.482   5.144  1.00  0.00    +0.150 C 
ATOM     10  S   UNL     1      58.150  32.598   4.855  1.00  0.00    -0.051 SA
ATOM     11  C   UNL     1      58.521  34.176   4.994  1.00  0.00    +0.286 C 
ATOM     12  O   UNL     1      59.628  34.652   5.020  1.00  0.00    -0.261 OA
ATOM     13  N   UNL     1      57.261  34.959   5.090  1.00  0.00    -0.286 N 
ATOM     14  C   UNL     1      56.018  33.945   5.184  1.00  0.00    +0.241 C 
ATOM     15  O   UNL     1      54.845  34.277   5.276  1.00  0.00    -0.273 OA
ATOM     16  H   UNL     1      -0.396   0.397   7.217  1.00  0.00    +0.173 HD
ENDBRANCH   8   9
ENDBRANCH   3   8
ENDBRANCH   1   2
BRANCH   1  17
ATOM     17  C   UNL     1      55.986  25.490   5.281  1.00  0.00    +0.251 C 
BRANCH  17  18
ATOM     18  C   UNL     1      56.517  24.050   5.136  1.00  0.00    +0.159 C 
BRANCH  18  19
ATOM     19  N   UNL     1      57.882  24.038   4.535  1.00  0.00    -0.356 N 
ATOM     20  C   UNL     1      59.015  24.080   5.358  1.00  0.00    +0.145 C 
BRANCH  19  21
ATOM     21  C   UNL     1      58.049  23.979   3.123  1.00  0.00    +0.128 A 
ATOM     22  N   UNL     1      59.305  23.842   2.606  1.00  0.00    -0.239 NA
ATOM     23  C   UNL     1      56.905  24.066   2.274  1.00  0.00    +0.047 A 
ATOM     24  C   UNL     1      59.500  23.783   1.274  1.00  0.00    +0.113 A 
ATOM     25  C   UNL     1      57.078  24.010   0.898  1.00  0.00    +0.005 A 
ATOM     26  C   UNL     1      58.376  23.867   0.385  1.00  0.00    +0.020 A 
ENDBRANCH  19  21
ENDBRANCH  18  19
ENDBRANCH  17  18
ENDBRANCH   1  17
TORSDOF 7
