REMARK SMILES CC1(C)CN2[C@H](CSC(NC3CCCCC3)NC3CCCCC3)CS[C@@H]2N1
REMARK SMILES IDX 8 1 7 2 6 3 2 4 27 5 4 6 26 7 5 8 25 9 24 10 1 11 3 12 9 14
REMARK SMILES IDX 10 15 11 17 12 18 16 19 13 20 15 21 14 22 17 23 18 25 19 26
REMARK SMILES IDX 23 27 20 28 22 29 21 30
REMARK H PARENT 27 13 10 16 17 24
ROOT
ATOM      1  S   UNL     1      20.266  -6.133  72.241  1.00  0.00    -0.126 SA
ENDROOT
BRANCH   1   2
ATOM      2  C   UNL     1      18.621  -6.760  72.105  1.00  0.00    +0.092 C 
BRANCH   2   3
ATOM      3  C   UNL     1      18.588  -7.737  70.955  1.00  0.00    +0.079 C 
ATOM      4  C   UNL     1      17.661  -6.546  67.643  1.00  0.00    +0.027 C 
ATOM      5  N   UNL     1      17.926  -7.984  67.615  1.00  0.00    -0.287 NA
ATOM      6  C   UNL     1      17.752  -6.132  69.120  1.00  0.00    +0.109 C 
ATOM      7  C   UNL     1      18.229  -8.379  68.859  1.00  0.00    +0.185 C 
ATOM      8  N   UNL     1      18.209  -7.382  69.701  1.00  0.00    -0.273 NA
ATOM      9  S   UNL     1      18.853  -9.843  69.494  1.00  0.00    -0.126 SA
ATOM     10  C   UNL     1      18.981  -9.093  71.061  1.00  0.00    +0.092 C 
ATOM     11  C   UNL     1      16.263  -6.280  67.102  1.00  0.00    +0.029 C 
ATOM     12  C   UNL     1      18.729  -5.812  66.836  1.00  0.00    +0.029 C 
ATOM     13  H   UNL     1      17.090  -8.486  67.284  1.00  0.00    +0.125 HD
ENDBRANCH   2   3
ENDBRANCH   1   2
BRANCH   1  14
ATOM     14  C   UNL     1      21.255  -7.369  72.779  1.00  0.00    +0.182 C 
BRANCH  14  15
ATOM     15  N   UNL     1      20.721  -8.189  73.690  1.00  0.00    -0.291 NA
ATOM     16  H   UNL     1      20.439  -7.563  74.457  1.00  0.00    +0.125 HD
BRANCH  15  17
ATOM     17  C   UNL     1      21.301  -9.340  74.366  1.00  0.00    +0.055 C 
ATOM     18  C   UNL     1      22.147  -9.006  75.586  1.00  0.00    +0.019 C 
ATOM     19  C   UNL     1      21.967 -10.410  73.516  1.00  0.00    +0.019 C 
ATOM     20  C   UNL     1      22.268 -10.246  76.470  1.00  0.00    +0.002 C 
ATOM     21  C   UNL     1      22.144 -11.682  74.350  1.00  0.00    +0.002 C 
ATOM     22  C   UNL     1      22.821 -11.453  75.710  1.00  0.00    +0.000 C 
ENDBRANCH  15  17
ENDBRANCH  14  15
BRANCH  14  23
ATOM     23  N   UNL     1      22.509  -7.497  72.324  1.00  0.00    -0.291 NA
ATOM     24  H   UNL     1      23.043  -6.760  72.807  1.00  0.00    +0.125 HD
BRANCH  23  25
ATOM     25  C   UNL     1      22.954  -7.432  70.931  1.00  0.00    +0.055 C 
ATOM     26  C   UNL     1      21.895  -7.605  69.845  1.00  0.00    +0.019 C 
ATOM     27  C   UNL     1      23.828  -6.218  70.637  1.00  0.00    +0.019 C 
ATOM     28  C   UNL     1      22.552  -7.752  68.473  1.00  0.00    +0.002 C 
ATOM     29  C   UNL     1      24.516  -6.362  69.280  1.00  0.00    +0.002 C 
ATOM     30  C   UNL     1      23.512  -6.603  68.157  1.00  0.00    +0.000 C 
ENDBRANCH  23  25
ENDBRANCH  14  23
ENDBRANCH   1  14
TORSDOF 7
